version 3
run Sched1-0-20250315-18:38:06-23864
attr configname Sched1
attr datetime 20250315-18:38:06
attr datetimef 20250315-183806
attr experiment Sched1
attr inifile omnetpp.ini
attr iterationvars ""
attr iterationvarsd ""
attr iterationvarsf ""
attr measurement ""
attr network RadioSch2
attr processid 23864
attr repetition 0
attr replication #0
attr resultdir results
attr runnumber 0
attr seedset 0
config description "low job arrival rate"
config *.scalar-recording true
config *.vector-recording true
config *.usersCount 5
config *.user[*].generator.networkLoad 0.9
config *.user[*].generator.packetsPerUser 4
config *.user[*].generator.channels 10
config *.user[*].generator.usersCount 5
config *.user[*].generator.MAX_Sim "10 s"
config network RadioSch2
config sim-time-limit 100h
config cpu-time-limit 300s
config record-eventlog true
config simtime-resolution ns

vector 0 RadioSch2.sink lifetime_user0:vector ETV
attr interpolationmode linear
attr recordingmode vector
attr title "Economy User 1 Packet Lifetime"
attr unit s
vector 1 RadioSch2.sink lifetime_user1:vector ETV
attr interpolationmode linear
attr recordingmode vector
attr title "Premium User 1 Packet Lifetime"
attr unit s
vector 2 RadioSch2.sink lifetime_user2:vector ETV
attr interpolationmode linear
attr recordingmode vector
attr title "Premium User 2 Packet Lifetime"
attr unit s
vector 3 RadioSch2.sink lifetime_user3:vector ETV
attr interpolationmode linear
attr recordingmode vector
attr title "Standard User Packet Lifetime"
attr unit s
vector 4 RadioSch2.sink lifetime_user4:vector ETV
attr interpolationmode linear
attr recordingmode vector
attr title "Economy User 2 Packet Lifetime"
attr unit s
0	38	1	1
0	39	1	1
0	69	2	2
0	70	2	2
0	149	5	0.663232587
0	150	5	0.663232587
0	165	6	1.663232587
0	166	6	1.663232587
0	230	9	0.127916552
0	231	9	0.127916552
0	254	10	1.127916552
0	255	10	1.127916552
0	273	11	1.585586573
0	274	11	1.585586573
0	305	12	2.585586573
0	306	12	2.585586573
0	329	13	3.225283263
0	330	13	3.225283263
0	363	14	4.225283263
0	364	14	4.225283263
0	399	15	3.120846203
0	400	15	3.120846203
0	420	16	4.120846203
0	421	16	4.120846203
0	444	17	4.982812224
0	445	17	4.982812224
0	468	18	5.982812224
0	469	18	5.982812224
0	492	19	5.997469938
0	493	19	5.997469938
0	521	20	6.997469938
0	522	20	6.997469938
0	537	21	6.12096373
0	538	21	6.12096373
0	571	22	7.12096373
0	572	22	7.12096373
0	590	23	5.768202141
0	591	23	5.768202141
0	609	24	6.768202141
0	610	24	6.768202141
0	633	25	3.945242902
0	634	25	3.945242902
0	652	26	4.945242902
0	653	26	4.945242902
0	684	27	3.352190621
0	685	27	3.352190621
0	705	28	4.352190621
0	706	28	4.352190621
0	775	30	0.828674272
0	776	30	0.828674272
0	796	31	1.828674272
0	797	31	1.828674272
0	880	35	0.891992275
0	881	35	0.891992275
0	894	36	1.891992275
0	895	36	1.891992275
0	943	37	0.819985874
0	944	37	0.819985874
0	969	38	1.819985874
0	970	38	1.819985874
0	1043	41	0.136768974
0	1044	41	0.136768974
0	1072	42	1.136768974
0	1073	42	1.136768974
0	1123	44	0.353196696
0	1124	44	0.353196696
0	1147	45	1.353196696
0	1148	45	1.353196696
0	1176	46	2.27811495
0	1177	46	2.27811495
0	1202	47	3.27811495
0	1203	47	3.27811495
0	1223	48	4.118836318
0	1224	48	4.118836318
0	1254	49	5.118836318
0	1255	49	5.118836318
0	1330	53	0.119176676
0	1331	53	0.119176676
0	1344	54	1.119176676
0	1345	54	1.119176676
0	1373	55	0.323665446
0	1374	55	0.323665446
0	1399	56	1.323665446
0	1400	56	1.323665446
0	1551	63	0.513712823
0	1552	63	0.513712823
0	1575	64	1.513712823
0	1576	64	1.513712823
0	1648	67	0.95878073
0	1649	67	0.95878073
0	1672	68	1.95878073
0	1673	68	1.95878073
0	1706	69	0.649434871
0	1707	69	0.649434871
0	1732	70	1.649434871
0	1733	70	1.649434871
0	1787	72	0.940547437
0	1788	72	0.940547437
0	1808	73	1.940547437
0	1809	73	1.940547437
0	1842	74	1.155232409
0	1843	74	1.155232409
0	1878	75	2.155232409
0	1879	75	2.155232409
0	1899	76	2.403777487
0	1900	76	2.403777487
0	1930	77	3.403777487
0	1931	77	3.403777487
0	1949	78	4.383148544
0	1950	78	4.383148544
0	1973	79	5.383148544
0	1974	79	5.383148544
0	1997	80	3.920015757
0	1998	80	3.920015757
0	2031	81	4.920015757
0	2032	81	4.920015757
0	2091	83	0.292903145
0	2092	83	0.292903145
0	2117	84	1.292903145
0	2118	84	1.292903145
0	2143	85	0.421489139
0	2144	85	0.421489139
0	2164	86	1.421489139
0	2165	86	1.421489139
0	2193	87	1.834221441
0	2194	87	1.834221441
0	2224	88	2.834221441
0	2225	88	2.834221441
0	2255	89	0.960559533
0	2256	89	0.960559533
0	2282	90	1.960559533
0	2283	90	1.960559533
0	2309	91	0.075124787
0	2310	91	0.075124787
0	2348	92	1.075124787
0	2349	92	1.075124787
0	2451	96	0.81991977
0	2452	96	0.81991977
0	2467	97	1.81991977
0	2468	97	1.81991977
0	2496	98	2.005583566
0	2497	98	2.005583566
0	2530	99	3.005583566
0	2531	99	3.005583566
0	2569	100	2.516179396
0	2570	100	2.516179396
0	2590	101	3.516179396
0	2591	101	3.516179396
0	2621	102	4.12907904
0	2622	102	4.12907904
0	2640	103	5.12907904
0	2641	103	5.12907904
0	2669	104	4.421849391
0	2670	104	4.421849391
0	2693	105	5.421849391
0	2694	105	5.421849391
0	2722	106	6.206743897
0	2723	106	6.206743897
0	2748	107	7.206743897
0	2749	107	7.206743897
0	2764	108	6.850115353
0	2765	108	6.850115353
0	2793	109	7.850115353
0	2794	109	7.850115353
0	2827	110	6.177418056
0	2828	110	6.177418056
0	2853	111	7.177418056
0	2854	111	7.177418056
0	2874	112	1.070184774
0	2875	112	1.070184774
0	2910	113	2.070184774
0	2911	113	2.070184774
0	3067	118	0.612585655
0	3068	118	0.612585655
0	3088	119	1.612585655
0	3089	119	1.612585655
0	3109	120	0.055557671
0	3110	120	0.055557671
0	3130	121	1.055557671
0	3131	121	1.055557671
0	3189	124	0.213069587
0	3190	124	0.213069587
0	3205	125	1.213069587
0	3206	125	1.213069587
0	3287	129	0.160386994
0	3288	129	0.160386994
0	3318	130	1.160386994
0	3319	130	1.160386994
0	3402	133	0.632926484
0	3403	133	0.632926484
0	3431	134	1.632926484
0	3432	134	1.632926484
0	3501	136	0.889193426
0	3502	136	0.889193426
0	3527	137	1.889193426
0	3528	137	1.889193426
0	3553	138	2.349759121
0	3554	138	2.349759121
0	3579	139	3.349759121
0	3580	139	3.349759121
0	3605	140	3.189511778
0	3606	140	3.189511778
0	3626	141	4.189511778
0	3627	141	4.189511778
0	3642	142	4.047988193
0	3643	142	4.047988193
0	3673	143	5.047988193
0	3674	143	5.047988193
0	3699	144	5.324839933
0	3700	144	5.324839933
0	3750	145	6.324839933
0	3751	145	6.324839933
0	3791	146	5.141443616
0	3792	146	5.141443616
0	3832	147	6.141443616
0	3833	147	6.141443616
0	3863	148	5.545075093
0	3864	148	5.545075093
0	3894	149	6.545075093
0	3895	149	6.545075093
0	3915	150	5.032947986
0	3916	150	5.032947986
0	3929	151	6.032947986
0	3930	151	6.032947986
0	3953	152	5.352578546
0	3954	152	5.352578546
0	3984	153	6.352578546
0	3985	153	6.352578546
0	4000	154	4.743533798
0	4001	154	4.743533798
0	4031	155	5.743533798
0	4032	155	5.743533798
0	4052	156	4.175812179
0	4053	156	4.175812179
0	4103	157	5.175812179
0	4104	157	5.175812179
0	4129	158	5.102361014
0	4130	158	5.102361014
0	4158	159	6.102361014
0	4159	159	6.102361014
0	4189	160	5.380997155
0	4190	160	5.380997155
0	4210	161	6.380997155
0	4211	161	6.380997155
0	4241	162	5.828544784
0	4242	162	5.828544784
0	4277	163	6.828544784
0	4278	163	6.828544784
0	4303	164	7.554301514
0	4304	164	7.554301514
0	4319	165	8.554301514
0	4320	165	8.554301514
0	4340	166	9.472748024
0	4341	166	9.472748024
0	4366	167	10.472748024
0	4367	167	10.472748024
0	4382	168	11.045868966
0	4383	168	11.045868966
0	4413	169	12.045868966
0	4414	169	12.045868966
0	4434	170	11.950582814
0	4435	170	11.950582814
0	4460	171	12.950582814
0	4461	171	12.950582814
0	4486	172	12.018104234
0	4487	172	12.018104234
0	4500	173	13.018104234
0	4501	173	13.018104234
0	4539	174	8.642434469
0	4540	174	8.642434469
0	4563	175	9.642434469
0	4564	175	9.642434469
0	4585	176	9.199299521
0	4586	176	9.199299521
0	4612	177	10.199299521
0	4613	177	10.199299521
0	4633	178	9.939961832
0	4634	178	9.939961832
0	4664	179	10.939961832
0	4665	179	10.939961832
0	4683	180	11.71370485
0	4684	180	11.71370485
0	4712	181	12.71370485
0	4713	181	12.71370485
0	4751	182	11.335743762
0	4752	182	11.335743762
0	4787	183	12.335743762
0	4788	183	12.335743762
0	4818	184	7.169622381
0	4819	184	7.169622381
0	4849	185	8.169622381
0	4850	185	8.169622381
0	4870	186	5.795468718
0	4871	186	5.795468718
0	4896	187	6.795468718
0	4897	187	6.795468718
0	4917	188	6.371212222
0	4918	188	6.371212222
0	4948	189	7.371212222
0	4949	189	7.371212222
0	4979	190	8.281305654
0	4980	190	8.281305654
0	5005	191	9.281305654
0	5006	191	9.281305654
0	5026	192	10.004000049
0	5027	192	10.004000049
0	5042	193	11.004000049
0	5043	193	11.004000049
0	5073	194	10.534933825
0	5074	194	10.534933825
0	5097	195	11.534933825
0	5098	195	11.534933825
0	5126	196	11.402870469
0	5127	196	11.402870469
0	5142	197	12.402870469
0	5143	197	12.402870469
0	5168	198	9.562294085
0	5169	198	9.562294085
0	5199	199	10.562294085
0	5200	199	10.562294085
0	5220	200	11.495443428
0	5221	200	11.495443428
0	5251	201	12.495443428
0	5252	201	12.495443428
0	5272	202	6.389535078
0	5273	202	6.389535078
0	5323	203	7.389535078
0	5324	203	7.389535078
0	5364	204	3.584190761
0	5365	204	3.584190761
0	5385	205	4.584190761
0	5386	205	4.584190761
0	5411	206	4.576605387
0	5412	206	4.576605387
0	5447	207	5.576605387
0	5448	207	5.576605387
0	5473	208	5.90476508
0	5474	208	5.90476508
0	5489	209	6.90476508
0	5490	209	6.90476508
0	5515	210	7.676811169
0	5516	210	7.676811169
0	5531	211	8.676811169
0	5532	211	8.676811169
0	5552	212	8.025398604
0	5553	212	8.025398604
0	5578	213	9.025398604
0	5579	213	9.025398604
0	5609	214	7.916540056
0	5610	214	7.916540056
0	5633	215	8.916540056
0	5634	215	8.916540056
0	5669	216	9.225668805
0	5670	216	9.225668805
0	5700	217	10.225668805
0	5701	217	10.225668805
0	5719	218	6.561627853
0	5720	218	6.561627853
0	5733	219	7.561627853
0	5734	219	7.561627853
0	5757	220	6.059288303
0	5758	220	6.059288303
0	5776	221	7.059288303
0	5777	221	7.059288303
0	5795	222	7.547897707
0	5796	222	7.547897707
0	5814	223	8.547897707
0	5815	223	8.547897707
0	5845	224	8.310780676
0	5846	224	8.310780676
0	5871	225	9.310780676
0	5872	225	9.310780676
0	5907	226	6.92484672
0	5908	226	6.92484672
0	5938	227	7.92484672
0	5939	227	7.92484672
0	5964	228	8.284373014
0	5965	228	8.284373014
0	6000	229	9.284373014
0	6001	229	9.284373014
0	6026	230	9.719473764
0	6027	230	9.719473764
0	6072	231	10.719473764
0	6073	231	10.719473764
0	6093	232	5.890972604
0	6094	232	5.890972604
0	6119	233	6.890972604
0	6120	233	6.890972604
0	6155	234	7.742961188
0	6156	234	7.742961188
0	6181	235	8.742961188
0	6182	235	8.742961188
0	6197	236	9.597042999
0	6198	236	9.597042999
0	6221	237	10.597042999
0	6222	237	10.597042999
0	6240	238	10.914871038
0	6241	238	10.914871038
0	6274	239	11.914871038
0	6275	239	11.914871038
0	6295	240	10.866250464
0	6296	240	10.866250464
0	6311	241	11.866250464
0	6312	241	11.866250464
0	6337	242	12.808263875
0	6338	242	12.808263875
0	6383	243	13.808263875
0	6384	243	13.808263875
0	6412	244	13.357722496
0	6413	244	13.357722496
0	6433	245	14.357722496
0	6434	245	14.357722496
0	6454	246	12.231210173
0	6455	246	12.231210173
0	6483	247	13.231210173
0	6484	247	13.231210173
0	6502	248	9.657674223
0	6503	248	9.657674223
0	6516	249	10.657674223
0	6517	249	10.657674223
0	6533	250	11.158991548
0	6534	250	11.158991548
0	6550	251	12.158991548
0	6551	251	12.158991548
0	6572	252	10.901852275
0	6573	252	10.901852275
0	6601	253	11.901852275
0	6602	253	11.901852275
0	6632	254	11.919296337
0	6633	254	11.919296337
0	6663	255	12.919296337
0	6664	255	12.919296337
0	6677	256	13.158477642
0	6678	256	13.158477642
0	6706	257	14.158477642
0	6707	257	14.158477642
0	6718	258	11.802022489
0	6719	258	11.802022489
0	6730	259	12.802022489
0	6731	259	12.802022489
0	6757	260	9.322428124
0	6758	260	9.322428124
0	6784	261	10.322428124
0	6785	261	10.322428124
0	6810	262	8.453622112
0	6811	262	8.453622112
0	6846	263	9.453622112
0	6847	263	9.453622112
0	6877	264	9.614258322
0	6878	264	9.614258322
0	6908	265	10.614258322
0	6909	265	10.614258322
0	6922	266	6.471425214
0	6923	266	6.471425214
0	6951	267	7.471425214
0	6952	267	7.471425214
0	6965	268	4.735059891
0	6966	268	4.735059891
0	6984	269	5.735059891
0	6985	269	5.735059891
0	7003	270	5.443488106
0	7004	270	5.443488106
0	7022	271	6.443488106
0	7023	271	6.443488106
0	7044	272	5.922557125
0	7045	272	5.922557125
0	7061	273	6.922557125
0	7062	273	6.922557125
0	7078	274	7.076935547
0	7079	274	7.076935547
0	7117	275	8.076935547
0	7118	275	8.076935547
0	7151	276	7.612694332
0	7152	276	7.612694332
0	7173	277	8.612694332
0	7174	277	8.612694332
0	7195	278	1.814550756
0	7196	278	1.814550756
0	7229	279	2.814550756
0	7230	279	2.814550756
0	7265	280	1.817555301
0	7266	280	1.817555301
0	7296	281	2.817555301
0	7297	281	2.817555301
0	7322	282	3.543907508
0	7323	282	3.543907508
0	7358	283	4.543907508
0	7359	283	4.543907508
0	7379	284	4.921215334
0	7380	284	4.921215334
0	7410	285	5.921215334
0	7411	285	5.921215334
0	7431	286	2.417022096
0	7432	286	2.417022096
0	7460	287	3.417022096
0	7461	287	3.417022096
0	7479	288	3.82932307
0	7480	288	3.82932307
0	7508	289	4.82932307
0	7509	289	4.82932307
0	7532	290	5.182015329
0	7533	290	5.182015329
0	7556	291	6.182015329
0	7557	291	6.182015329
0	7590	292	7.025298963
0	7591	292	7.025298963
0	7609	293	8.025298963
0	7610	293	8.025298963
0	7623	294	8.857440161
0	7624	294	8.857440161
0	7652	295	9.857440161
0	7653	295	9.857440161
0	7686	296	9.528006349
0	7687	296	9.528006349
0	7700	297	10.528006349
0	7701	297	10.528006349
0	7724	298	11.225436186
0	7725	298	11.225436186
0	7740	299	12.225436186
0	7741	299	12.225436186
0	7761	300	8.516391846
0	7762	300	8.516391846
0	7795	301	9.516391846
0	7796	301	9.516391846
0	7819	302	9.689778494
0	7820	302	9.689778494
0	7848	303	10.689778494
0	7849	303	10.689778494
0	7872	304	8.977325445
0	7873	304	8.977325445
0	7891	305	9.977325445
0	7892	305	9.977325445
0	7920	306	10.909161277
0	7921	306	10.909161277
0	7936	307	11.909161277
0	7937	307	11.909161277
0	7948	308	12.907684752
0	7949	308	12.907684752
0	7963	309	13.907684752
0	7964	309	13.907684752
0	7985	310	9.554900884
0	7986	310	9.554900884
0	8010	311	10.554900884
0	8011	311	10.554900884
0	8034	312	10.445630321
0	8035	312	10.445630321
0	8053	313	11.445630321
0	8054	313	11.445630321
0	8075	314	11.473843974
0	8076	314	11.473843974
0	8097	315	12.473843974
0	8098	315	12.473843974
0	8109	316	13.23970288
0	8110	316	13.23970288
0	8141	317	14.23970288
0	8142	317	14.23970288
0	8156	318	15.004946712
0	8157	318	15.004946712
0	8183	319	16.004946712
0	8184	319	16.004946712
0	8215	320	16.154778103
0	8216	320	16.154778103
0	8239	321	17.154778103
0	8240	321	17.154778103
0	8270	322	16.033305507
0	8271	322	16.033305507
0	8291	323	17.033305507
0	8292	323	17.033305507
0	8322	324	14.634000097
0	8323	324	14.634000097
0	8348	325	15.634000097
0	8349	325	15.634000097
0	8374	326	14.993388699
0	8375	326	14.993388699
0	8400	327	15.993388699
0	8401	327	15.993388699
0	8429	328	16.494467561
0	8430	328	16.494467561
0	8455	329	17.494467561
0	8456	329	17.494467561
0	8476	330	16.280016582
0	8477	330	16.280016582
0	8490	331	17.280016582
0	8491	331	17.280016582
0	8514	332	18.275423769
0	8515	332	18.275423769
0	8543	333	19.275423769
0	8544	333	19.275423769
0	8567	334	17.629750887
0	8568	334	17.629750887
0	8594	335	18.629750887
0	8595	335	18.629750887
0	8623	336	19.471156197
0	8624	336	19.471156197
0	8664	337	20.471156197
0	8665	337	20.471156197
0	8683	338	21.216767909
0	8684	338	21.216767909
0	8702	339	22.216767909
0	8703	339	22.216767909
0	8726	340	16.845198859
0	8727	340	16.845198859
0	8765	341	17.845198859
0	8766	341	17.845198859
0	8779	342	16.86069466
0	8780	342	16.86069466
0	8801	343	17.86069466
0	8802	343	17.86069466
0	8825	344	15.871400782
0	8826	344	15.871400782
0	8854	345	16.871400782
0	8855	345	16.871400782
0	8878	346	13.664701152
0	8879	346	13.664701152
0	8909	347	14.664701152
0	8910	347	14.664701152
0	8938	348	14.913864314
0	8939	348	14.913864314
0	8954	349	15.913864314
0	8955	349	15.913864314
0	8985	350	15.980640511
0	8986	350	15.980640511
0	9014	351	16.980640511
0	9015	351	16.980640511
0	9028	352	17.192426232
0	9029	352	17.192426232
0	9050	353	18.192426232
0	9051	353	18.192426232
0	9074	354	18.254569816
0	9075	354	18.254569816
0	9100	355	19.254569816
0	9101	355	19.254569816
0	9116	356	16.666065828
0	9117	356	16.666065828
0	9140	357	17.666065828
0	9141	357	17.666065828
0	9164	358	17.601629068
0	9165	358	17.601629068
0	9193	359	18.601629068
0	9194	359	18.601629068
0	9224	360	19.380549419
0	9225	360	19.380549419
0	9240	361	20.380549419
0	9241	361	20.380549419
0	9259	362	16.73006826
0	9260	362	16.73006826
0	9278	363	17.73006826
0	9279	363	17.73006826
0	9312	364	17.927106803
0	9313	364	17.927106803
0	9336	365	18.927106803
0	9337	365	18.927106803
0	9370	366	18.92196749
0	9371	366	18.92196749
0	9396	367	19.92196749
0	9397	367	19.92196749
0	9412	368	17.843965587
0	9413	368	17.843965587
0	9441	369	18.843965587
0	9442	369	18.843965587
0	9462	370	7.251219906
0	9463	370	7.251219906
0	9483	371	8.251219906
0	9484	371	8.251219906
0	9497	372	6.19981144
0	9498	372	6.19981144
0	9514	373	7.19981144
0	9515	373	7.19981144
0	9526	374	7.82927243
0	9527	374	7.82927243
0	9543	375	8.82927243
0	9544	375	8.82927243
0	9612	378	0.372343145
0	9613	378	0.372343145
0	9629	379	1.372343145
0	9630	379	1.372343145
0	9661	380	1.315756696
0	9662	380	1.315756696
0	9683	381	2.315756696
0	9684	381	2.315756696
0	9699	382	2.284467086
0	9700	382	2.284467086
0	9723	383	3.284467086
0	9724	383	3.284467086
0	9740	384	4.037027402
0	9741	384	4.037027402
0	9759	385	5.037027402
0	9760	385	5.037027402
0	9842	388	0.618077739
0	9843	388	0.618077739
0	9873	389	1.618077739
0	9874	389	1.618077739
0	9904	390	0.173070206
0	9905	390	0.173070206
0	9928	391	1.173070206
0	9929	391	1.173070206
0	10099	400	0.783588203
0	10100	400	0.783588203
0	10125	401	1.783588203
0	10126	401	1.783588203
0	10156	402	0.020350137
0	10157	402	0.020350137
0	10180	403	1.020350137
0	10181	403	1.020350137
0	10206	404	0.646721531
0	10207	404	0.646721531
0	10242	405	1.646721531
0	10243	405	1.646721531
0	10258	406	1.723882316
0	10259	406	1.723882316
0	10279	407	2.723882316
0	10280	407	2.723882316
0	10303	408	3.166665939
0	10304	408	3.166665939
0	10325	409	4.166665939
0	10326	409	4.166665939
0	10349	410	2.257015712
0	10350	410	2.257015712
0	10365	411	3.257015712
0	10366	411	3.257015712
0	10442	415	0.627662454
0	10443	415	0.627662454
0	10464	416	1.627662454
0	10465	416	1.627662454
0	10483	417	2.194949819
0	10484	417	2.194949819
0	10497	418	3.194949819
0	10498	418	3.194949819
0	10527	419	3.69941111
0	10528	419	3.69941111
0	10571	420	4.69941111
0	10572	420	4.69941111
0	10595	421	2.885476833
0	10596	421	2.885476833
0	10612	422	3.885476833
0	10613	422	3.885476833
0	10627	423	3.895625674
0	10628	423	3.895625674
0	10654	424	4.895625674
0	10655	424	4.895625674
0	10680	425	5.597092212
0	10681	425	5.597092212
0	10707	426	6.597092212
0	10708	426	6.597092212
0	10719	427	7.33250312
0	10720	427	7.33250312
0	10736	428	8.33250312
0	10737	428	8.33250312
0	10753	429	9.236308495
0	10754	429	9.236308495
0	10775	430	10.236308495
0	10776	430	10.236308495
0	10785	431	10.876465947
0	10786	431	10.876465947
0	10800	432	11.876465947
0	10801	432	11.876465947
0	10817	433	12.416583873
0	10818	433	12.416583873
0	10831	434	13.416583873
0	10832	434	13.416583873
0	10851	435	13.859244764
0	10852	435	13.859244764
0	10873	436	14.859244764
0	10874	436	14.859244764
0	10897	437	13.414227513
0	10898	437	13.414227513
0	10911	438	14.414227513
0	10912	438	14.414227513
0	10943	439	14.923949235
0	10944	439	14.923949235
0	10967	440	15.923949235
0	10968	440	15.923949235
0	10993	441	15.739777688
0	10994	441	15.739777688
0	11027	442	16.739777688
0	11028	442	16.739777688
0	11058	443	13.375005941
0	11059	443	13.375005941
0	11077	444	14.375005941
0	11078	444	14.375005941
0	11101	445	6.375482972
0	11102	445	6.375482972
0	11130	446	7.375482972
0	11131	446	7.375482972
0	11159	447	7.867425777
0	11160	447	7.867425777
0	11200	448	8.867425777
0	11201	448	8.867425777
0	11226	449	8.261791346
0	11227	449	8.261791346
0	11252	450	9.261791346
0	11253	450	9.261791346
0	11288	451	9.684131198
0	11289	451	9.684131198
0	11304	452	10.684131198
0	11305	452	10.684131198
0	11335	453	8.836256747
0	11336	453	8.836256747
0	11379	454	9.836256747
0	11380	454	9.836256747
0	11410	455	8.00490882
0	11411	455	8.00490882
0	11431	456	9.00490882
0	11432	456	9.00490882
0	11460	457	7.008442335
0	11461	457	7.008442335
0	11481	458	8.008442335
0	11482	458	8.008442335
0	11505	459	8.199047452
0	11506	459	8.199047452
0	11541	460	9.199047452
0	11542	460	9.199047452
0	11577	461	7.822261557
0	11578	461	7.822261557
0	11598	462	8.822261557
0	11599	462	8.822261557
0	11624	463	3.942244767
0	11625	463	3.942244767
0	11645	464	4.942244767
0	11646	464	4.942244767
0	11695	466	0.235524712
0	11696	466	0.235524712
0	11721	467	1.235524712
0	11722	467	1.235524712
0	11750	468	0.881713323
0	11751	468	0.881713323
0	11789	469	1.881713323
0	11790	469	1.881713323
0	11815	470	2.665160444
0	11816	470	2.665160444
0	11831	471	3.665160444
0	11832	471	3.665160444
0	11870	472	0.295598947
0	11871	472	0.295598947
0	11906	473	1.295598947
0	11907	473	1.295598947
0	11922	474	2.221543243
0	11923	474	2.221543243
0	11958	475	3.221543243
0	11959	475	3.221543243
0	11989	476	3.240859985
0	11990	476	3.240859985
0	12030	477	4.240859985
0	12031	477	4.240859985
0	12049	478	5.152348769
0	12050	478	5.152348769
0	12078	479	6.152348769
0	12079	479	6.152348769
0	12099	480	5.882569374
0	12100	480	5.882569374
0	12130	481	6.882569374
0	12131	481	6.882569374
0	12166	482	5.234905158
0	12167	482	5.234905158
0	12182	483	6.234905158
0	12183	483	6.234905158
0	12211	484	6.409689474
0	12212	484	6.409689474
0	12247	485	7.409689474
0	12248	485	7.409689474
0	12291	486	2.221777567
0	12292	486	2.221777567
0	12305	487	3.221777567
0	12306	487	3.221777567
0	12339	488	3.963604751
0	12340	488	3.963604751
0	12368	489	4.963604751
0	12369	489	4.963604751
0	12394	490	4.727948421
0	12395	490	4.727948421
0	12430	491	5.727948421
0	12431	491	5.727948421
0	12456	492	6.541572327
0	12457	492	6.541572327
0	12477	493	7.541572327
0	12478	493	7.541572327
0	12503	494	0.215752696
0	12504	494	0.215752696
0	12534	495	1.215752696
0	12535	495	1.215752696
0	12613	498	0.912462442
0	12614	498	0.912462442
0	12639	499	1.912462442
0	12640	499	1.912462442
0	12684	501	0.67846576
0	12685	501	0.67846576
0	12715	502	1.67846576
0	12716	502	1.67846576
0	12841	508	0.387435208
0	12842	508	0.387435208
0	12862	509	1.387435208
0	12863	509	1.387435208
0	12886	510	2.35764505
0	12887	510	2.35764505
0	12903	511	3.35764505
0	12904	511	3.35764505
0	12915	512	2.964629797
0	12916	512	2.964629797
0	12937	513	3.964629797
0	12938	513	3.964629797
0	12964	514	0.709810316
0	12965	514	0.709810316
0	12988	515	1.709810316
0	12989	515	1.709810316
0	13014	516	2.568763703
0	13015	516	2.568763703
0	13040	517	3.568763703
0	13041	517	3.568763703
0	13069	518	3.318905349
0	13070	518	3.318905349
0	13115	519	4.318905349
0	13116	519	4.318905349
0	13146	520	1.123017407
0	13147	520	1.123017407
0	13182	521	2.123017407
0	13183	521	2.123017407
0	13218	522	0.998429895
0	13219	522	0.998429895
0	13239	523	1.998429895
0	13240	523	1.998429895
0	13280	524	0.422160893
0	13281	524	0.422160893
0	13294	525	1.422160893
0	13295	525	1.422160893
0	13422	530	0.446422794
0	13423	530	0.446422794
0	13448	531	1.446422794
0	13449	531	1.446422794
0	13479	532	2.387147378
0	13480	532	2.387147378
0	13515	533	3.387147378
0	13516	533	3.387147378
0	13541	534	0.579482045
0	13542	534	0.579482045
0	13597	535	1.579482045
0	13598	535	1.579482045
0	13623	536	1.919909515
0	13624	536	1.919909515
0	13644	537	2.919909515
0	13645	537	2.919909515
0	13680	538	3.224356079
0	13681	538	3.224356079
0	13706	539	4.224356079
0	13707	539	4.224356079
0	13737	540	5.089669661
0	13738	540	5.089669661
0	13763	541	6.089669661
0	13764	541	6.089669661
0	13804	542	5.184249509
0	13805	542	5.184249509
0	13825	543	6.184249509
0	13826	543	6.184249509
0	13861	544	5.395001428
0	13862	544	5.395001428
0	13882	545	6.395001428
0	13883	545	6.395001428
0	13913	546	3.534523653
0	13914	546	3.534523653
0	13939	547	4.534523653
0	13940	547	4.534523653
0	13965	548	2.750496015
0	13966	548	2.750496015
0	13991	549	3.750496015
0	13992	549	3.750496015
0	14032	550	0.557687372
0	14033	550	0.557687372
0	14053	551	1.557687372
0	14054	551	1.557687372
0	14074	552	2.318153229
0	14075	552	2.318153229
0	14100	553	3.318153229
0	14101	553	3.318153229
0	14126	554	1.656567285
0	14127	554	1.656567285
0	14152	555	2.656567285
0	14153	555	2.656567285
0	14188	556	1.795293374
0	14189	556	1.795293374
0	14204	557	2.795293374
0	14205	557	2.795293374
0	14376	562	0.933367094
0	14377	562	0.933367094
0	14407	563	1.933367094
0	14408	563	1.933367094
0	14428	564	2.539949958
0	14429	564	2.539949958
0	14454	565	3.539949958
0	14455	565	3.539949958
0	14470	566	4.269267218
0	14471	566	4.269267218
0	14506	567	5.269267218
0	14507	567	5.269267218
0	14527	568	4.354696525
0	14528	568	4.354696525
0	14553	569	5.354696525
0	14554	569	5.354696525
0	14661	573	0.226343058
0	14662	573	0.226343058
0	14677	574	1.226343058
0	14678	574	1.226343058
0	14722	576	0.776229131
0	14723	576	0.776229131
0	14738	577	1.776229131
0	14739	577	1.776229131
0	14779	578	0.34473866
0	14780	578	0.34473866
0	14805	579	1.34473866
0	14806	579	1.34473866
0	14884	582	0.537901739
0	14885	582	0.537901739
0	14925	583	1.537901739
0	14926	583	1.537901739
0	14941	584	1.096017974
0	14942	584	1.096017974
0	14967	585	2.096017974
0	14968	585	2.096017974
0	14988	586	1.28722978
0	14989	586	1.28722978
0	15029	587	2.28722978
0	15030	587	2.28722978
0	15060	588	0.752580916
0	15061	588	0.752580916
0	15086	589	1.752580916
0	15087	589	1.752580916
0	15107	590	0.304763356
0	15108	590	0.304763356
0	15133	591	1.304763356
0	15134	591	1.304763356
0	15164	592	1.576204655
0	15165	592	1.576204655
0	15180	593	2.576204655
0	15181	593	2.576204655
0	15206	594	0.934471421
0	15207	594	0.934471421
0	15242	595	1.934471421
0	15243	595	1.934471421
0	15263	596	1.792461294
0	15264	596	1.792461294
0	15289	597	2.792461294
0	15290	597	2.792461294
0	15320	598	0.02065223
0	15321	598	0.02065223
0	15344	599	1.02065223
0	15345	599	1.02065223
0	15363	600	0.778510808
0	15364	600	0.778510808
0	15382	601	1.778510808
0	15383	601	1.778510808
0	15432	603	0.77624527
0	15433	603	0.77624527
0	15453	604	1.77624527
0	15454	604	1.77624527
0	15479	605	2.491079328
0	15480	605	2.491079328
0	15493	606	3.491079328
0	15494	606	3.491079328
0	15566	609	0.697102382
0	15567	609	0.697102382
0	15600	610	1.697102382
0	15601	610	1.697102382
0	15621	611	1.277060111
0	15622	611	1.277060111
0	15642	612	2.277060111
0	15643	612	2.277060111
0	15794	618	0.669368123
0	15795	618	0.669368123
0	15823	619	1.669368123
0	15824	619	1.669368123
0	15852	620	1.379351402
0	15853	620	1.379351402
0	15866	621	2.379351402
0	15867	621	2.379351402
0	15880	622	2.426927145
0	15881	622	2.426927145
0	15899	623	3.426927145
0	15900	623	3.426927145
0	15944	625	0.066141428
0	15945	625	0.066141428
0	15970	626	1.066141428
0	15971	626	1.066141428
0	15991	627	2.053897066
0	15992	627	2.053897066
0	16005	628	3.053897066
0	16006	628	3.053897066
0	16100	633	0.779839465
0	16101	633	0.779839465
0	16126	634	1.779839465
0	16127	634	1.779839465
0	16166	636	0.258981837
0	16167	636	0.258981837
0	16187	637	1.258981837
0	16188	637	1.258981837
0	16216	638	0.941245548
0	16217	638	0.941245548
0	16253	639	1.941245548
0	16254	639	1.941245548
0	16279	640	1.31775301
0	16280	640	1.31775301
0	16310	641	2.31775301
0	16311	641	2.31775301
0	16329	642	2.477900368
0	16330	642	2.477900368
0	16353	643	3.477900368
0	16354	643	3.477900368
0	16375	644	3.5386438
0	16376	644	3.5386438
0	16399	645	4.5386438
0	16400	645	4.5386438
0	16430	646	5.343675844
0	16431	646	5.343675844
0	16454	647	6.343675844
0	16455	647	6.343675844
0	16481	648	1.109520951
0	16482	648	1.109520951
0	16503	649	2.109520951
0	16504	649	2.109520951
0	16532	650	2.841699425
0	16533	650	2.841699425
0	16551	651	3.841699425
0	16552	651	3.841699425
0	16575	652	4.737684196
0	16576	652	4.737684196
0	16601	653	5.737684196
0	16602	653	5.737684196
0	16617	654	6.471747281
0	16618	654	6.471747281
0	16641	655	7.471747281
0	16642	655	7.471747281
0	16675	656	6.134504
0	16676	656	6.134504
0	16694	657	7.134504
0	16695	657	7.134504
0	16711	658	7.419854094
0	16712	658	7.419854094
0	16738	659	8.419854094
0	16739	659	8.419854094
0	16752	660	8.506064699
0	16753	660	8.506064699
0	16774	661	9.506064699
0	16775	661	9.506064699
0	16803	662	6.670666498
0	16804	662	6.670666498
0	16827	663	7.670666498
0	16828	663	7.670666498
0	16856	664	7.431388444
0	16857	664	7.431388444
0	16875	665	8.431388444
0	16876	665	8.431388444
0	16899	666	7.673947872
0	16900	666	7.673947872
0	16918	667	8.673947872
0	16919	667	8.673947872
0	16940	668	9.101408128
0	16941	668	9.101408128
0	16969	669	10.101408128
0	16970	669	10.101408128
0	16988	670	7.858957866
0	16989	670	7.858957866
0	17032	671	8.858957866
0	17033	671	8.858957866
0	17068	672	8.442650643
0	17069	672	8.442650643
0	17089	673	9.442650643
0	17090	673	9.442650643
0	17120	674	7.546322704
0	17121	674	7.546322704
0	17156	675	8.546322704
0	17157	675	8.546322704
0	17187	676	8.010412414
0	17188	676	8.010412414
0	17223	677	9.010412414
0	17224	677	9.010412414
0	17249	678	6.30370635
0	17250	678	6.30370635
0	17280	679	7.30370635
0	17281	679	7.30370635
0	17306	680	6.620653463
0	17307	680	6.620653463
0	17325	681	7.620653463
0	17326	681	7.620653463
0	17354	682	8.552305506
0	17355	682	8.552305506
0	17368	683	9.552305506
0	17369	683	9.552305506
0	17387	684	8.538996968
0	17388	684	8.538996968
0	17428	685	9.538996968
0	17429	685	9.538996968
0	17469	686	1.98736941
0	17470	686	1.98736941
0	17495	687	2.98736941
0	17496	687	2.98736941
0	17511	688	2.23284139
0	17512	688	2.23284139
0	17542	689	3.23284139
0	17543	689	3.23284139
0	17563	690	3.049387271
0	17564	690	3.049387271
0	17584	691	4.049387271
0	17585	691	4.049387271
0	17625	692	5.03173232
0	17626	692	5.03173232
0	17656	693	6.03173232
0	17657	693	6.03173232
0	17687	694	2.363707806
0	17688	694	2.363707806
0	17718	695	3.363707806
0	17719	695	3.363707806
0	17749	696	2.544115459
0	17750	696	2.544115459
0	17770	697	3.544115459
0	17771	697	3.544115459
0	17820	699	0.583595557
0	17821	699	0.583595557