version 3
run Sched1-0-20241210-00:15:50-24732
attr configname Sched1
attr datetime 20241210-00:15:50
attr datetimef 20241210-001550
attr experiment Sched1
attr inifile omnetpp.ini
attr iterationvars ""
attr iterationvarsd ""
attr iterationvarsf ""
attr measurement ""
attr network RadioSch2
attr processid 24732
attr repetition 0
attr replication #0
attr resultdir results
attr runnumber 0
attr seedset 0
config description "low job arrival rate"
config *.scalar-recording true
config *.vector-recording true
config *.usersCount 5
config **.user[*].generator.sendIaTime "0.2 ms"
config *.user[*].generator.networkLoad 0.3
config *.user[*].generator.packetsPerUser 4
config *.user[*].generator.channels 14
config *.user[*].generator.usersCount 7
config *.user[*].generator.MAX_Sim "10 s"
config network RadioSch2
config sim-time-limit 100h
config cpu-time-limit 300s
config record-eventlog true
config simtime-resolution ns

vector 0 RadioSch2.sink lifetime_user0:vector ETV
attr interpolationmode linear
attr recordingmode vector
attr title "Economy User 1 Packet Lifetime"
attr unit s
vector 1 RadioSch2.sink lifetime_user1:vector ETV
attr interpolationmode linear
attr recordingmode vector
attr title "Premium User 1 Packet Lifetime"
attr unit s
vector 2 RadioSch2.sink lifetime_user2:vector ETV
attr interpolationmode linear
attr recordingmode vector
attr title "Premium User 2 Packet Lifetime"
attr unit s
vector 3 RadioSch2.sink lifetime_user3:vector ETV
attr interpolationmode linear
attr recordingmode vector
attr title "Standard User Packet Lifetime"
attr unit s
vector 4 RadioSch2.sink lifetime_user4:vector ETV
attr interpolationmode linear
attr recordingmode vector
attr title "Economy User 2 Packet Lifetime"
attr unit s
0	52	2	2
0	53	2	2
0	54	2	2
0	55	2	2
0	124	14	0.989697761
0	125	14	0.989697761
0	126	14	0.989697761
0	127	14	0.989697761
0	146	16	0.019574461
0	147	16	0.019574461
0	148	16	0.019574461
0	149	16	0.019574461
0	188	18	0.444863087
0	189	18	0.444863087
0	212	19	1.444863087
0	213	19	1.444863087
0	375	39	0.15855214
0	376	39	0.15855214
0	377	39	0.15855214
0	378	39	0.15855214
0	461	51	0.95240411
0	462	51	0.95240411
0	463	51	0.95240411
0	464	51	0.95240411
0	508	53	0.056766404
0	509	53	0.056766404
0	558	56	3.056766404
0	559	56	3.056766404
0	606	66	0.497240493
0	607	66	0.497240493
0	608	66	0.497240493
0	609	66	0.497240493
0	633	68	0.819916406
0	634	68	0.819916406
0	635	68	0.819916406
0	636	68	0.819916406
0	637	68	0.225554473
0	638	68	0.225554473
0	646	69	1.225554473
0	647	69	1.225554473
0	648	69	0.82701472
0	649	69	0.82701472
0	650	69	0.82701472
0	651	69	0.82701472
0	695	77	0.881294029
0	696	77	0.881294029
0	697	77	0.881294029
0	698	77	0.881294029
0	755	87	0.21649775
0	756	87	0.21649775
0	757	87	0.21649775
0	758	87	0.21649775
0	854	96	0.68033539
0	855	96	0.68033539
0	856	96	0.68033539
0	857	96	0.68033539
0	898	100	0.241385479
0	899	100	0.241385479
0	900	100	0.241385479
0	901	100	0.241385479
0	910	102	0.148066159
0	911	102	0.148066159
0	912	102	0.148066159
0	913	102	0.148066159
0	922	104	0.45465697
0	923	104	0.45465697
0	924	104	0.45465697
0	925	104	0.45465697
0	965	108	0.921579775
0	966	108	0.921579775
0	967	108	0.921579775
0	968	108	0.921579775
0	987	110	0.998161706
0	988	110	0.998161706
0	989	110	0.998161706
0	990	110	0.998161706
0	1016	113	0.821637822
0	1017	113	0.821637822
0	1018	113	0.821637822
0	1019	113	0.821637822
0	1068	121	0.891662813
0	1069	121	0.891662813
0	1070	121	0.891662813
0	1071	121	0.891662813
0	1089	122	0.61635584
0	1090	122	0.61635584
0	1091	122	0.61635584
0	1092	122	0.61635584
0	1134	127	0.197033432
0	1135	127	0.197033432
0	1148	128	1.197033432
0	1149	128	1.197033432
0	1159	131	0.802350186
0	1160	131	0.802350186
0	1161	131	0.802350186
0	1162	131	0.802350186
0	1223	136	1.135512612
0	1224	136	1.135512612
0	1225	136	1.135512612
0	1226	136	1.135512612
0	1246	139	0.181635296
0	1247	139	0.181635296
0	1248	139	0.181635296
0	1249	139	0.181635296
0	1331	146	0.918288724
0	1332	146	0.918288724
0	1333	146	0.918288724
0	1334	146	0.918288724
0	1458	157	0.045390891
0	1459	157	0.045390891
0	1460	157	0.045390891
0	1461	157	0.045390891
0	1609	174	0.474516995
0	1610	174	0.474516995
0	1611	174	0.474516995
0	1612	174	0.474516995
0	1678	187	0.25576646
0	1679	187	0.25576646
0	1680	187	0.25576646
0	1681	187	0.25576646
0	1718	193	0.140621147
0	1719	193	0.140621147
0	1720	193	0.140621147
0	1721	193	0.140621147
0	1803	208	0.589195218
0	1804	208	0.589195218
0	1805	208	0.589195218
0	1806	208	0.589195218
0	1987	231	0.162669732
0	1988	231	0.162669732
0	1989	231	0.162669732
0	1990	231	0.162669732
0	2019	233	0.374515777
0	2020	233	0.374515777
0	2021	233	0.374515777
0	2022	233	0.374515777
0	2052	236	0.243795563
0	2053	236	0.243795563
0	2054	236	0.243795563
0	2055	236	0.243795563
0	2113	241	1.77831593
0	2114	241	1.77831593
0	2115	241	1.77831593
0	2116	241	1.77831593
0	2117	241	1.770260584
0	2118	241	1.770260584
0	2119	241	1.770260584
0	2120	241	1.770260584
0	2156	245	0.666666702
0	2157	245	0.666666702
0	2158	245	0.666666702
0	2159	245	0.666666702
0	2160	245	0.210407533
0	2161	245	0.210407533
0	2169	246	1.210407533
0	2170	246	1.210407533
0	2171	246	0.758035013
0	2172	246	0.758035013
0	2173	246	0.758035013
0	2174	246	0.758035013
0	2206	251	0.289641729
0	2207	251	0.289641729
0	2208	251	0.289641729
0	2209	251	0.289641729
0	2296	265	0.631388439
0	2297	265	0.631388439
0	2298	265	0.631388439
0	2299	265	0.631388439
0	2314	268	0.900540705
0	2315	268	0.900540705
0	2316	268	0.900540705
0	2317	268	0.900540705
0	2325	269	0.274342906
0	2326	269	0.274342906
0	2327	269	0.274342906
0	2328	269	0.274342906
0	2363	272	0.952685345
0	2364	272	0.952685345
0	2365	272	0.952685345
0	2366	272	0.952685345
0	2367	272	0.232378233
0	2368	272	0.232378233
0	2369	272	0.232378233
0	2370	272	0.232378233
0	2567	297	0.525773984
0	2568	297	0.525773984
0	2569	297	0.525773984
0	2570	297	0.525773984
0	2675	311	0.094926146
0	2676	311	0.094926146
0	2677	311	0.094926146
0	2678	311	0.094926146
0	2709	315	0.076186759
0	2710	315	0.076186759
0	2711	315	0.076186759
0	2712	315	0.076186759
0	2755	318	0.361672222
0	2756	318	0.361672222
0	2757	318	0.361672222
0	2758	318	0.361672222
0	2821	321	0.567866865
0	2822	321	0.567866865
0	2823	321	0.567866865
0	2824	321	0.567866865
0	2825	321	0.305731865
0	2826	321	0.305731865
0	2858	323	2.305731865
0	2859	323	2.305731865
0	2884	331	0.417130543
0	2885	331	0.417130543
0	2886	331	0.417130543
0	2887	331	0.417130543
0	2917	334	0.591181608
0	2918	334	0.591181608
0	2919	334	0.591181608
0	2920	334	0.591181608
0	3009	347	0.758276024
0	3010	347	0.758276024
0	3011	347	0.758276024
0	3012	347	0.758276024
0	3063	353	0.767289659
0	3064	353	0.767289659
0	3065	353	0.767289659
0	3066	353	0.767289659
0	3091	359	0.845395645
0	3092	359	0.845395645
0	3093	359	0.845395645
0	3094	359	0.845395645
0	3179	367	0.373488182
0	3180	367	0.373488182
0	3181	367	0.373488182
0	3182	367	0.373488182
0	3266	375	0.00169577
0	3267	375	0.00169577
0	3268	375	0.00169577
0	3269	375	0.00169577
0	3278	377	0.988783379
0	3279	377	0.988783379
0	3280	377	0.988783379
0	3281	377	0.988783379
0	3400	394	0.734558937
0	3401	394	0.734558937
0	3402	394	0.734558937
0	3403	394	0.734558937
0	3427	396	0.756247032
0	3428	396	0.756247032
0	3429	396	0.756247032
0	3430	396	0.756247032
0	3470	399	0.435546354
0	3471	399	0.435546354
0	3472	399	0.435546354
0	3473	399	0.435546354
0	3498	402	0.423931646
0	3499	402	0.423931646
0	3500	402	0.423931646
0	3501	402	0.423931646
0	3502	402	0.009050198
0	3503	402	0.009050198
0	3504	402	0.009050198
0	3505	402	0.009050198
0	3582	412	0.739502935
0	3583	412	0.739502935
0	3584	412	0.739502935
0	3585	412	0.739502935
0	3620	420	0.277280714
0	3621	420	0.277280714
0	3622	420	0.277280714
0	3623	420	0.277280714
0	3672	423	0.028377575
0	3673	423	0.028377575
0	3674	423	0.028377575
0	3675	423	0.028377575
0	3892	451	0.865102588
0	3893	451	0.865102588
0	3894	451	0.865102588
0	3895	451	0.865102588
0	3896	451	0.160969768
0	3897	451	0.160969768
0	3898	451	0.160969768
0	3899	451	0.160969768
0	4050	465	0.705851757
0	4051	465	0.705851757
0	4052	465	0.705851757
0	4053	465	0.705851757
0	4054	465	0.522841106
0	4055	465	0.522841106
0	4056	465	0.522841106
0	4057	465	0.522841106
0	4098	473	0.42510928
0	4099	473	0.42510928
0	4100	473	0.42510928
0	4101	473	0.42510928
0	4137	478	0.476270451
0	4138	478	0.476270451
0	4139	478	0.476270451
0	4140	478	0.476270451
0	4168	480	0.821051229
0	4169	480	0.821051229
0	4170	480	0.821051229
0	4171	480	0.821051229
0	4232	484	0.580381602
0	4233	484	0.580381602
0	4234	484	0.580381602
0	4235	484	0.580381602
0	4243	485	0.448920069
0	4244	485	0.448920069
0	4245	485	0.448920069
0	4246	485	0.448920069
0	4277	489	0.69870594
0	4278	489	0.69870594
0	4279	489	0.69870594
0	4280	489	0.69870594
0	4308	491	0.288209609
0	4309	491	0.288209609
0	4310	491	0.288209609
0	4311	491	0.288209609
0	4319	492	0.258817118
0	4320	492	0.258817118
0	4321	492	0.258817118
0	4322	492	0.258817118
0	4330	493	0.952347658
0	4331	493	0.952347658
0	4332	493	0.952347658
0	4333	493	0.952347658
0	4520	514	0.17901142
0	4521	514	0.17901142
0	4522	514	0.17901142
0	4523	514	0.17901142
0	4582	521	0.444089691
0	4583	521	0.444089691
0	4584	521	0.444089691
0	4585	521	0.444089691
0	4586	521	0.219731749
0	4587	521	0.219731749
0	4588	521	0.219731749
0	4589	521	0.219731749
0	4667	532	0.553872855
0	4668	532	0.553872855
0	4669	532	0.553872855
0	4670	532	0.553872855
0	4802	548	0.755666449
0	4803	548	0.755666449
0	4804	548	0.755666449
0	4805	548	0.755666449
0	4954	574	0.997313851
0	4955	574	0.997313851
0	4956	574	0.997313851
0	4957	574	0.997313851
0	5025	581	0.572003459
0	5026	581	0.572003459
0	5057	583	2.572003459
0	5058	583	2.572003459
0	5172	598	0.211680563
0	5173	598	0.211680563
0	5174	598	0.211680563
0	5175	598	0.211680563
0	5221	607	0.156457101
0	5222	607	0.156457101
0	5223	607	0.156457101
0	5224	607	0.156457101
0	5245	611	0.332154252
0	5246	611	0.332154252
0	5247	611	0.332154252
0	5248	611	0.332154252
0	5280	616	0.627379184
0	5281	616	0.627379184
0	5282	616	0.627379184
0	5283	616	0.627379184
0	5292	618	0.440374482
0	5293	618	0.440374482
0	5294	618	0.440374482
0	5295	618	0.440374482
0	5393	630	0.034242546
0	5394	630	0.034242546
0	5395	630	0.034242546
0	5396	630	0.034242546
0	5525	656	0.69740964
0	5526	656	0.69740964
0	5527	656	0.69740964
0	5528	656	0.69740964
0	5600	667	0.46975799
0	5601	667	0.46975799
0	5602	667	0.46975799
0	5603	667	0.46975799
0	5631	669	0.491040401
0	5632	669	0.491040401
0	5645	670	1.491040401
0	5646	670	1.491040401
0	5738	685	0.4076632
0	5739	685	0.4076632
0	5740	685	0.4076632
0	5741	685	0.4076632
0	5809	696	0.494877277
0	5810	696	0.494877277
0	5811	696	0.494877277
0	5812	696	0.494877277
0	5874	705	0.979851622
0	5875	705	0.979851622
0	5876	705	0.979851622
0	5877	705	0.979851622
0	5899	706	0.651472298
0	5900	706	0.651472298
0	5901	706	0.651472298
0	5902	706	0.651472298
0	5967	714	0.713853707
0	5968	714	0.713853707
0	5969	714	0.713853707
0	5970	714	0.713853707
0	6017	724	0.944967699
0	6018	724	0.944967699
0	6019	724	0.944967699
0	6020	724	0.944967699
0	6028	725	0.686347354
0	6029	725	0.686347354
0	6030	725	0.686347354
0	6031	725	0.686347354
0	6096	733	0.823295007
0	6097	733	0.823295007
0	6098	733	0.823295007
0	6099	733	0.823295007
0	6119	736	0.114420604
0	6120	736	0.114420604
0	6121	736	0.114420604
0	6122	736	0.114420604
0	6142	739	0.195657458
0	6143	739	0.195657458
0	6144	739	0.195657458
0	6145	739	0.195657458
0	6179	741	0.44652152
0	6180	741	0.44652152
0	6181	741	0.44652152
0	6182	741	0.44652152
0	6183	741	0.018223018
0	6184	741	0.018223018
0	6185	741	0.018223018
0	6186	741	0.018223018
0	6237	745	0.511718687
0	6238	745	0.511718687
0	6251	746	1.511718687
0	6252	746	1.511718687
0	6350	756	0.857968953
0	6351	756	0.857968953
0	6352	756	0.857968953
0	6353	756	0.857968953
0	6371	757	0.845370341
0	6372	757	0.845370341
0	6373	757	0.845370341
0	6374	757	0.845370341
0	6424	770	0.374224621
0	6425	770	0.374224621
0	6426	770	0.374224621
0	6427	770	0.374224621
0	6538	789	0.51171546
0	6539	789	0.51171546
0	6540	789	0.51171546
0	6541	789	0.51171546
0	6553	790	0.049941683
0	6554	790	0.049941683
0	6555	790	0.049941683
0	6556	790	0.049941683
0	6630	801	0.345776136
0	6631	801	0.345776136
0	6632	801	0.345776136
0	6633	801	0.345776136
0	6647	804	0.54761713
0	6648	804	0.54761713
0	6649	804	0.54761713
0	6650	804	0.54761713
0	6706	813	0.099954503
0	6707	813	0.099954503
0	6708	813	0.099954503
0	6709	813	0.099954503
0	6733	820	0.756462578
0	6734	820	0.756462578
0	6735	820	0.756462578
0	6736	820	0.756462578
0	6764	822	0.113793658
0	6765	822	0.113793658
0	6766	822	0.113793658
0	6767	822	0.113793658
0	6800	828	0.841471943
0	6801	828	0.841471943
0	6802	828	0.841471943
0	6803	828	0.841471943
0	6824	832	0.592382979
0	6825	832	0.592382979
0	6826	832	0.592382979
0	6827	832	0.592382979
0	6835	833	0.716028662
0	6836	833	0.716028662
0	6837	833	0.716028662
0	6838	833	0.716028662
0	6857	835	0.942197121
0	6858	835	0.942197121
0	6859	835	0.942197121
0	6860	835	0.942197121
0	6892	840	0.672978178
0	6893	840	0.672978178
0	6894	840	0.672978178
0	6895	840	0.672978178
0	6927	845	0.070977001
0	6928	845	0.070977001
0	6929	845	0.070977001
0	6930	845	0.070977001
0	6939	847	0.642418366
0	6940	847	0.642418366
0	6941	847	0.642418366
0	6942	847	0.642418366
0	7079	873	0.987535692
0	7080	873	0.987535692
0	7081	873	0.987535692
0	7082	873	0.987535692
0	7083	873	0.126718796
0	7084	873	0.126718796
0	7106	874	1.126718796
0	7107	874	1.126718796
0	7232	892	0.564538761
0	7233	892	0.564538761
0	7234	892	0.564538761
0	7235	892	0.564538761
0	7277	896	0.779619203
0	7278	896	0.779619203
0	7279	896	0.779619203
0	7280	896	0.779619203
0	7383	904	0.748604125
0	7384	904	0.748604125
0	7385	904	0.748604125
0	7386	904	0.748604125
0	7417	908	0.381940614
0	7418	908	0.381940614
0	7419	908	0.381940614
0	7420	908	0.381940614
0	7429	910	0.148307624
0	7430	910	0.148307624
0	7431	910	0.148307624
0	7432	910	0.148307624
0	7458	919	0.992750525
0	7459	919	0.992750525
0	7460	919	0.992750525
0	7461	919	0.992750525
0	7574	935	0.605703904
0	7575	935	0.605703904
0	7576	935	0.605703904
0	7577	935	0.605703904
0	7619	940	0.87351528
0	7620	940	0.87351528
0	7621	940	0.87351528
0	7622	940	0.87351528
0	7630	941	0.901334813
0	7631	941	0.901334813
0	7632	941	0.901334813
0	7633	941	0.901334813
0	7661	952	0.044843669
0	7662	952	0.044843669
0	7663	952	0.044843669
0	7664	952	0.044843669
0	7726	958	0.052775683
0	7727	958	0.052775683
0	7740	959	1.052775683
0	7741	959	1.052775683
0	7846	978	0.542805122
0	7847	978	0.542805122
0	7848	978	0.542805122
0	7849	978	0.542805122
0	7889	981	0.388695951
0	7890	981	0.388695951
0	7891	981	0.388695951
0	7892	981	0.388695951
0	7940	986	0.121386376
0	7941	986	0.121386376
0	7942	986	0.121386376
0	7943	986	0.121386376
0	8030	996	0.228935551
0	8031	996	0.228935551
0	8032	996	0.228935551
0	8033	996	0.228935551
0	8055	997	0.725907011
0	8056	997	0.725907011
0	8057	997	0.725907011
0	8058	997	0.725907011
0	8101	1007	0.887916066
0	8102	1007	0.887916066
0	8103	1007	0.887916066
0	8104	1007	0.887916066
0	8178	1021	0.666219196
0	8179	1021	0.666219196
0	8180	1021	0.666219196
0	8181	1021	0.666219196
0	8195	1023	0.767897038
0	8196	1023	0.767897038
0	8197	1023	0.767897038
0	8198	1023	0.767897038
0	8199	1023	0.296263775
0	8200	1023	0.296263775
0	8201	1023	0.296263775
0	8202	1023	0.296263775
0	8236	1030	0.892471996
0	8237	1030	0.892471996
0	8238	1030	0.892471996
0	8239	1030	0.892471996
0	8325	1041	0.208250784
0	8326	1041	0.208250784
0	8327	1041	0.208250784
0	8328	1041	0.208250784
0	8338	1042	0.090479996
0	8339	1042	0.090479996
0	8340	1042	0.090479996
0	8341	1042	0.090479996
0	8389	1053	0.396342973
0	8390	1053	0.396342973
0	8391	1053	0.396342973
0	8392	1053	0.396342973
0	8413	1057	0.833866419
0	8414	1057	0.833866419
0	8415	1057	0.833866419
0	8416	1057	0.833866419
0	8494	1063	0.669233449
0	8495	1063	0.669233449
0	8496	1063	0.669233449
0	8497	1063	0.669233449
0	8498	1063	0.272888582
0	8499	1063	0.272888582
0	8502	1064	1.272888582
0	8503	1064	1.272888582
0	8524	1068	0.7449405
0	8525	1068	0.7449405
0	8526	1068	0.7449405
0	8527	1068	0.7449405
0	8536	1070	0.589369494
0	8537	1070	0.589369494
0	8538	1070	0.589369494
0	8539	1070	0.589369494
0	8551	1075	0.906149392
0	8552	1075	0.906149392
0	8553	1075	0.906149392
0	8554	1075	0.906149392
0	8643	1087	0.750793963
0	8644	1087	0.750793963
0	8645	1087	0.750793963
0	8646	1087	0.750793963
0	8694	1097	0.377696271
0	8695	1097	0.377696271
0	8696	1097	0.377696271
0	8697	1097	0.377696271
0	8784	1108	0.925060672
0	8785	1108	0.925060672
0	8786	1108	0.925060672
0	8787	1108	0.925060672
0	8819	1113	0.239161664
0	8820	1113	0.239161664
0	8821	1113	0.239161664
0	8822	1113	0.239161664
0	8885	1119	0.594737496
0	8886	1119	0.594737496
0	8887	1119	0.594737496
0	8888	1119	0.594737496
0	9005	1133	0.46944125
0	9006	1133	0.46944125
0	9007	1133	0.46944125
0	9008	1133	0.46944125
0	9009	1133	0.288075255
0	9010	1133	0.288075255
0	9033	1134	1.288075255
0	9034	1134	1.288075255
0	9053	1136	0.15641841
0	9054	1136	0.15641841
0	9055	1136	0.15641841
0	9056	1136	0.15641841
0	9064	1137	0.548388295
0	9065	1137	0.548388295
0	9066	1137	0.548388295
0	9067	1137	0.548388295
0	9096	1139	0.520643594
0	9097	1139	0.520643594
0	9098	1139	0.520643594
0	9099	1139	0.520643594
0	9128	1145	0.127828133
0	9129	1145	0.127828133
0	9130	1145	0.127828133
0	9131	1145	0.127828133
0	9144	1147	0.074718444
0	9145	1147	0.074718444
0	9146	1147	0.074718444
0	9147	1147	0.074718444
0	9292	1167	0.874796184
0	9293	1167	0.874796184
0	9294	1167	0.874796184
0	9295	1167	0.874796184
0	9325	1170	0.075184159
0	9326	1170	0.075184159
0	9327	1170	0.075184159
0	9328	1170	0.075184159
0	9375	1180	0.215464094
0	9376	1180	0.215464094
0	9377	1180	0.215464094
0	9378	1180	0.215464094
0	9386	1181	0.822143141
0	9387	1181	0.822143141
0	9388	1181	0.822143141
0	9389	1181	0.822143141
0	9463	1189	0.585731852
0	9464	1189	0.585731852
0	9465	1189	0.585731852
0	9466	1189	0.585731852
0	9496	1193	0.336620851
0	9497	1193	0.336620851
0	9498	1193	0.336620851
0	9499	1193	0.336620851
0	9622	1209	0.942788686
0	9623	1209	0.942788686
0	9624	1209	0.942788686
0	9625	1209	0.942788686
0	9644	1211	0.557975267
0	9645	1211	0.557975267
0	9646	1211	0.557975267
0	9647	1211	0.557975267
0	9722	1220	0.159297488
0	9723	1220	0.159297488
0	9724	1220	0.159297488
0	9725	1220	0.159297488
0	9799	1232	0.824663225
0	9800	1232	0.824663225
0	9801	1232	0.824663225
0	9802	1232	0.824663225
0	9856	1236	0.382933212
0	9857	1236	0.382933212
0	9858	1236	0.382933212
0	9859	1236	0.382933212
0	9967	1245	0.945098558
0	9968	1245	0.945098558
0	9969	1245	0.945098558
0	9970	1245	0.945098558
0	10012	1250	0.098616255
0	10013	1250	0.098616255
0	10014	1250	0.098616255
0	10015	1250	0.098616255
0	10033	1251	0.420092833
0	10034	1251	0.420092833
0	10035	1251	0.420092833
0	10036	1251	0.420092833
0	10062	1255	0.688464197
0	10063	1255	0.688464197
0	10064	1255	0.688464197
0	10065	1255	0.688464197
0	10066	1255	0.467886919
0	10067	1255	0.467886919
0	10068	1255	0.467886919
0	10069	1255	0.467886919
0	10118	1258	0.309125189
0	10119	1258	0.309125189
0	10120	1258	0.309125189
0	10121	1258	0.309125189
0	10144	1264	0.730602639
0	10145	1264	0.730602639
0	10146	1264	0.730602639
0	10147	1264	0.730602639
0	10167	1267	0.206508783
0	10168	1267	0.206508783
0	10169	1267	0.206508783
0	10170	1267	0.206508783
0	10189	1269	0.242622737
0	10190	1269	0.242622737
0	10191	1269	0.242622737
0	10192	1269	0.242622737
0	10247	1277	0.328976012
0	10248	1277	0.328976012
0	10249	1277	0.328976012
0	10250	1277	0.328976012
0	10280	1280	0.347110833
0	10281	1280	0.347110833
0	10282	1280	0.347110833
0	10283	1280	0.347110833
0	10340	1290	0.319763608
0	10341	1290	0.319763608
0	10342	1290	0.319763608
0	10343	1290	0.319763608
0	10453	1297	0.496128466
0	10454	1297	0.496128466
0	10455	1297	0.496128466
0	10456	1297	0.496128466
0	10457	1297	0.204621743
0	10458	1297	0.204621743
0	10471	1298	1.204621743
0	10472	1298	1.204621743
0	10516	1305	0.982466739
0	10517	1305	0.982466739
0	10518	1305	0.982466739
0	10519	1305	0.982466739
0	10548	1307	0.108306366
0	10549	1307	0.108306366
0	10550	1307	0.108306366
0	10551	1307	0.108306366
0	10580	1309	0.788159859
0	10581	1309	0.788159859
0	10582	1309	0.788159859
0	10583	1309	0.788159859
0	10630	1319	0.278549139
0	10631	1319	0.278549139
0	10632	1319	0.278549139
0	10633	1319	0.278549139
0	10691	1330	0.051341486
0	10692	1330	0.051341486
0	10693	1330	0.051341486
0	10694	1330	0.051341486
0	10712	1331	0.778118244
0	10713	1331	0.778118244
0	10714	1331	0.778118244
0	10715	1331	0.778118244
0	10793	1343	0.74746577
0	10794	1343	0.74746577
0	10795	1343	0.74746577
0	10796	1343	0.74746577
0	11057	1377	0.705160083
0	11058	1377	0.705160083
0	11059	1377	0.705160083
0	11060	1377	0.705160083
0	11068	1378	0.96357911
0	11069	1378	0.96357911
0	11070	1378	0.96357911
0	11071	1378	0.96357911
0	11079	1379	0.053950345
0	11080	1379	0.053950345
0	11081	1379	0.053950345
0	11082	1379	0.053950345
0	11253	1395	0.080849982
0	11254	1395	0.080849982
0	11255	1395	0.080849982
0	11256	1395	0.080849982
0	11331	1409	0.649623622
0	11332	1409	0.649623622
0	11333	1409	0.649623622
0	11334	1409	0.649623622
0	11347	1411	0.459916287
0	11348	1411	0.459916287
0	11349	1411	0.459916287
0	11350	1411	0.459916287
0	11468	1423	0.732085875
0	11469	1423	0.732085875
0	11470	1423	0.732085875
0	11471	1423	0.732085875
0	11513	1428	0.134187737
0	11514	1428	0.134187737
0	11515	1428	0.134187737
0	11516	1428	0.134187737
0	11624	1439	0.785318437
0	11625	1439	0.785318437
0	11626	1439	0.785318437
0	11627	1439	0.785318437
0	11691	1445	0.559984535
0	11692	1445	0.559984535
0	11693	1445	0.559984535
0	11694	1445	0.559984535
0	11759	1453	0.270158457
0	11760	1453	0.270158457
0	11761	1453	0.270158457
0	11762	1453	0.270158457
0	11794	1458	0.632291164
0	11795	1458	0.632291164
0	11796	1458	0.632291164
0	11797	1458	0.632291164
0	11839	1463	0.870661001
0	11840	1463	0.870661001
0	11841	1463	0.870661001
0	11842	1463	0.870661001
0	12011	1485	0.589511806
0	12012	1485	0.589511806
0	12013	1485	0.589511806
0	12014	1485	0.589511806
0	12032	1486	0.750750126
0	12033	1486	0.750750126
0	12034	1486	0.750750126
0	12035	1486	0.750750126
0	12114	1492	0.91849429
0	12115	1492	0.91849429
0	12116	1492	0.91849429
0	12117	1492	0.91849429
0	12164	1498	0.179878351
0	12165	1498	0.179878351
0	12166	1498	0.179878351
0	12167	1498	0.179878351
0	12216	1501	0.869499677
0	12217	1501	0.869499677
0	12218	1501	0.869499677
0	12219	1501	0.869499677
0	12312	1509	1.275382791
0	12313	1509	1.275382791
0	12314	1509	1.275382791
0	12315	1509	1.275382791
0	12405	1521	0.945437693
0	12406	1521	0.945437693
0	12409	1522	1.945437693
0	12410	1522	1.945437693
0	12464	1529	0.2326526
0	12465	1529	0.2326526
0	12466	1529	0.2326526
0	12467	1529	0.2326526
0	12480	1530	0.492349295
0	12481	1530	0.492349295
0	12482	1530	0.492349295
0	12483	1530	0.492349295
0	12484	1530	0.230926596
0	12485	1530	0.230926596
0	12486	1530	0.230926596
0	12487	1530	0.230926596
0	12505	1531	0.589951125
0	12506	1531	0.589951125
0	12507	1531	0.589951125
0	12508	1531	0.589951125
0	12570	1536	0.96431841
0	12571	1536	0.96431841
0	12574	1537	1.96431841
0	12575	1537	1.96431841
0	12647	1543	0.201806802
0	12648	1543	0.201806802
0	12649	1543	0.201806802
0	12650	1543	0.201806802
0	12684	1550	0.900051787
0	12685	1550	0.900051787
0	12686	1550	0.900051787
0	12687	1550	0.900051787
0	12785	1562	0.101964988
0	12786	1562	0.101964988
0	12787	1562	0.101964988
0	12788	1562	0.101964988
0	12902	1579	0.416462493
0	12903	1579	0.416462493
0	12904	1579	0.416462493
0	12905	1579	0.416462493
0	12968	1584	0.32308384
0	12969	1584	0.32308384
0	12970	1584	0.32308384
0	12971	1584	0.32308384
0	13011	1588	0.409028708
0	13012	1588	0.409028708
0	13015	1589	1.409028708
0	13016	1589	1.409028708
0	13128	1608	0.911412361
0	13129	1608	0.911412361
0	13130	1608	0.911412361
0	13131	1608	0.911412361
0	13144	1610	0.221920181
0	13145	1610	0.221920181
0	13146	1610	0.221920181
0	13147	1610	0.221920181
0	13192	1613	0.557007093
0	13193	1613	0.557007093
0	13194	1613	0.557007093
0	13195	1613	0.557007093
0	13196	1613	0.334375085
0	13197	1613	0.334375085
0	13200	1614	1.334375085
0	13201	1614	1.334375085
0	13219	1615	0.204685983
0	13220	1615	0.204685983
0	13221	1615	0.204685983
0	13222	1615	0.204685983
0	13311	1629	0.156787026
0	13312	1629	0.156787026
0	13313	1629	0.156787026
0	13314	1629	0.156787026
0	13430	1638	0.522434832
0	13431	1638	0.522434832
0	13432	1638	0.522434832
0	13433	1638	0.522434832
0	13442	1640	0.372944954
0	13443	1640	0.372944954
0	13444	1640	0.372944954
0	13445	1640	0.372944954
0	13590	1659	0.333074786
0	13591	1659	0.333074786
0	13592	1659	0.333074786
0	13593	1659	0.333074786
0	13625	1664	0.962665122
0	13626	1664	0.962665122
0	13627	1664	0.962665122
0	13628	1664	0.962665122
0	13759	1674	0.059193191
0	13760	1674	0.059193191
0	13761	1674	0.059193191
0	13762	1674	0.059193191
0	13853	1684	0.059076637
0	13854	1684	0.059076637
0	13855	1684	0.059076637
0	13856	1684	0.059076637
0	13890	1688	0.477126183
0	13891	1688	0.477126183
0	13892	1688	0.477126183
0	13893	1688	0.477126183
0	13894	1688	0.128058106
0	13895	1688	0.128058106
0	13896	1688	0.128058106
0	13897	1688	0.128058106
0	13923	1692	0.628978051
0	13924	1692	0.628978051
0	13925	1692	0.628978051
0	13926	1692	0.628978051
0	13988	1701	0.612505798
0	13989	1701	0.612505798
0	13990	1701	0.612505798
0	13991	1701	0.612505798
0	14058	1708	0.196008006
0	14059	1708	0.196008006
0	14060	1708	0.196008006
0	14061	1708	0.196008006
0	14127	1717	0.149493134
0	14128	1717	0.149493134
0	14129	1717	0.149493134
0	14130	1717	0.149493134
0	14139	1719	0.794741251
0	14140	1719	0.794741251
0	14141	1719	0.794741251
0	14142	1719	0.794741251
0	14150	1720	0.288948878
0	14151	1720	0.288948878
0	14152	1720	0.288948878
0	14153	1720	0.288948878
0	14229	1729	0.398114815
0	14230	1729	0.398114815
0	14231	1729	0.398114815
0	14232	1729	0.398114815
0	14281	1736	0.265327819
0	14282	1736	0.265327819
0	14283	1736	0.265327819
0	14284	1736	0.265327819
0	14296	1737	0.531258663
0	14297	1737	0.531258663
0	14298	1737	0.531258663
0	14299	1737	0.531258663
0	14466	1757	0.738757036
0	14467	1757	0.738757036
0	14468	1757	0.738757036
0	14469	1757	0.738757036
0	14523	1765	0.900725133
0	14524	1765	0.900725133
0	14525	1765	0.900725133
0	14526	1765	0.900725133
0	14577	1769	0.331414469
0	14578	1769	0.331414469
0	14579	1769	0.331414469
0	14580	1769	0.331414469
0	14600	1772	0.316227417
0	14601	1772	0.316227417
0	14602	1772	0.316227417
0	14603	1772	0.316227417
0	14636	1778	0.85485903
0	14637	1778	0.85485903
0	14638	1778	0.85485903
0	14639	1778	0.85485903
0	14692	1784	0.438198102
0	14693	1784	0.438198102
0	14694	1784	0.438198102
0	14695	1784	0.438198102
0	14802	1795	0.792352371
0	14803	1795	0.792352371
0	14804	1795	0.792352371
0	14805	1795	0.792352371
0	14917	1804	0.924105168
0	14918	1804	0.924105168
0	14919	1804	0.924105168
0	14920	1804	0.924105168
0	14932	1805	0.88775932
0	14933	1805	0.88775932
0	14934	1805	0.88775932
0	14935	1805	0.88775932
0	14954	1807	0.344376062
0	14955	1807	0.344376062
0	14956	1807	0.344376062
0	14957	1807	0.344376062
0	14991	1814	0.660738437
0	14992	1814	0.660738437
0	14993	1814	0.660738437
0	14994	1814	0.660738437
0	15162	1828	0.279100234
0	15163	1828	0.279100234
0	15164	1828	0.279100234
0	15165	1828	0.279100234
0	15225	1833	0.83198008
0	15226	1833	0.83198008
0	15227	1833	0.83198008
0	15228	1833	0.83198008
0	15229	1833	0.714406171
0	15230	1833	0.714406171
0	15231	1833	0.714406171
0	15232	1833	0.714406171
0	15296	1840	0.409516599
0	15297	1840	0.409516599
0	15298	1840	0.409516599
0	15299	1840	0.409516599
0	15317	1841	0.274543855
0	15318	1841	0.274543855
0	15319	1841	0.274543855
0	15320	1841	0.274543855
0	15513	1866	0.376289186
0	15514	1866	0.376289186
0	15515	1866	0.376289186
0	15516	1866	0.376289186
0	15543	1867	0.349071235
0	15544	1867	0.349071235
0	15557	1868	1.349071235
0	15558	1868	1.349071235
0	15590	1873	0.064099625
0	15591	1873	0.064099625
0	15592	1873	0.064099625
0	15593	1873	0.064099625
0	15688	1881	0.78129764
0	15689	1881	0.78129764
0	15690	1881	0.78129764
0	15691	1881	0.78129764
0	15712	1885	0.043726153
0	15713	1885	0.043726153
0	15714	1885	0.043726153
0	15715	1885	0.043726153
0	15738	1891	0.219487926
0	15739	1891	0.219487926
0	15740	1891	0.219487926
0	15741	1891	0.219487926
0	15809	1902	0.628950069
0	15810	1902	0.628950069
0	15811	1902	0.628950069
0	15812	1902	0.628950069
0	15869	1906	0.310782487
0	15870	1906	0.310782487
0	15871	1906	0.310782487
0	15872	1906	0.310782487
0	15999	1922	0.509951641
0	16000	1922	0.509951641
0	16001	1922	0.509951641
0	16002	1922	0.509951641
0	16003	1922	0.506677729
0	16004	1922	0.506677729
0	16005	1922	0.506677729
0	16006	1922	0.506677729
0	16007	1922	0.19432615
0	16008	1922	0.19432615
0	16011	1923	1.19432615
0	16012	1923	1.19432615
0	16062	1927	0.536739127
0	16063	1927	0.536739127
0	16064	1927	0.536739127
0	16065	1927	0.536739127
0	16073	1928	0.961921413
0	16074	1928	0.961921413
0	16075	1928	0.961921413
0	16076	1928	0.961921413
0	16129	1934	0.295240672
0	16130	1934	0.295240672
0	16153	1935	1.295240672
0	16154	1935	1.295240672
0	16246	1945	0.438290222
0	16247	1945	0.438290222
0	16248	1945	0.438290222
0	16249	1945	0.438290222
0	16287	1951	0.610016548
0	16288	1951	0.610016548
0	16289	1951	0.610016548
0	16290	1951	0.610016548
0	16351	1956	0.363815121
0	16352	1956	0.363815121
0	16374	1957	1.363815121
0	16375	1957	1.363815121
0	16400	1965	0.16819347
0	16401	1965	0.16819347
0	16402	1965	0.16819347
0	16403	1965	0.16819347
0	16458	1973	0.779666262
0	16459	1973	0.779666262
0	16460	1973	0.779666262
0	16461	1973	0.779666262
0	16626	1996	0.433521839
0	16627	1996	0.433521839
0	16628	1996	0.433521839
0	16629	1996	0.433521839
0	16743	2019	0.730916254
0	16744	2019	0.730916254
0	16745	2019	0.730916254
0	16746	2019	0.730916254
0	16798	2024	0.651611007
0	16799	2024	0.651611007
0	16800	2024	0.651611007
0	16801	2024	0.651611007
0	16854	2031	0.681487732
0	16855	2031	0.681487732
0	16858	2032	1.681487732
0	16859	2032	1.681487732
0	16868	2034	0.40965232
0	16869	2034	0.40965232
0	16870	2034	0.40965232
0	16871	2034	0.40965232
0	16944	2041	0.700080195
0	16945	2041	0.700080195
0	16968	2042	1.700080195
0	16969	2042	1.700080195
0	17021	2047	0.962583134
0	17022	2047	0.962583134
0	17023	2047	0.962583134
0	17024	2047	0.962583134